# vtk DataFile Version 2.0
barra, Created by Gmsh 4.13.0 
ASCII
DATASET UNSTRUCTURED_GRID
POINTS 162 double
0 0 0
0 1 0
0 1 1
0 0 1
10 0 0
10 1 0
10 1 1
10 0 1
0 0.2499999999994109 0
0 0.4999999999986921 0
0 0.7499999999993406 0
0 1 0.2499999999994109
0 1 0.4999999999986921
0 1 0.7499999999993406
0 0.7500000000003471 1
0 0.5000000000020595 1
0 0.2500000000010405 1
0 0 0.7500000000003471
0 0 0.5000000000020595
0 0 0.2500000000010405
1.249999999998971 0 0
2.499999999995364 0 0
3.749999999991713 0 0
4.999999999992399 0 0
6.2499999999943 0 0
7.499999999996199 0 0
8.749999999998099 0 0
1.249999999998971 1 0
2.499999999995364 1 0
3.749999999991713 1 0
4.999999999992399 1 0
6.2499999999943 1 0
7.499999999996199 1 0
8.749999999998099 1 0
1.249999999998971 1 1
2.499999999995364 1 1
3.749999999991713 1 1
4.999999999992399 1 1
6.2499999999943 1 1
7.499999999996199 1 1
8.749999999998099 1 1
1.249999999998971 0 1
2.499999999995364 0 1
3.749999999991713 0 1
4.999999999992399 0 1
6.2499999999943 0 1
7.499999999996199 0 1
8.749999999998099 0 1
10 0.2499999999994109 0
10 0.4999999999986921 0
10 0.7499999999993406 0
10 1 0.2499999999994109
10 1 0.4999999999986921
10 1 0.7499999999993406
10 0.7500000000003471 1
10 0.5000000000020595 1
10 0.2500000000010405 1
10 0 0.7500000000003471
10 0 0.5000000000020595
10 0 0.2500000000010405
0 0.2500000000006332 0.7500000000000954
0 0.5000000000012177 0.7499999999998438
0 0.7500000000000953 0.7499999999995921
0 0.2500000000002257 0.5000000000012177
0 0.5000000000003757 0.5000000000003757
0 0.7499999999998439 0.4999999999995339
0 0.2499999999998184 0.2500000000006332
0 0.4999999999995339 0.2500000000002257
0 0.7499999999995922 0.2499999999998184
10 0.2499999999998184 0.2500000000006332
10 0.2500000000002257 0.5000000000012177
10 0.2500000000006332 0.7500000000000954
10 0.4999999999995339 0.2500000000002257
10 0.5000000000003757 0.5000000000003757
10 0.5000000000012177 0.749999999999844
10 0.7499999999995922 0.2499999999998184
10 0.749999999999844 0.4999999999995339
10 0.7500000000000953 0.7499999999995921
1.249999999998971 0.2499999999994109 0
2.499999999995364 0.2499999999994109 0
3.749999999991713 0.2499999999994109 0
4.999999999992399 0.249999999999411 0
6.2499999999943 0.2499999999994109 0
7.499999999996199 0.2499999999994109 0
8.749999999998099 0.2499999999994109 0
1.249999999998971 0.4999999999986921 0
2.499999999995364 0.4999999999986921 0
3.749999999991712 0.499999999998692 0
4.9999999999924 0.499999999998692 0
6.2499999999943 0.4999999999986922 0
7.499999999996199 0.4999999999986921 0
8.749999999998099 0.4999999999986921 0
1.249999999998971 0.7499999999993406 0
2.499999999995364 0.7499999999993409 0
3.749999999991712 0.7499999999993407 0
4.999999999992399 0.7499999999993407 0
6.2499999999943 0.7499999999993406 0
7.499999999996199 0.7499999999993407 0
8.749999999998099 0.7499999999993406 0
1.249999999998971 1 0.2499999999994109
2.499999999995364 1 0.2499999999994109
3.749999999991713 1 0.2499999999994109
4.999999999992399 1 0.249999999999411
6.2499999999943 1 0.2499999999994109
7.499999999996199 1 0.2499999999994109
8.749999999998099 1 0.2499999999994109
1.249999999998971 1 0.4999999999986921
2.499999999995364 1 0.4999999999986921
3.749999999991712 1 0.499999999998692
4.9999999999924 1 0.499999999998692
6.2499999999943 1 0.4999999999986922
7.499999999996199 1 0.4999999999986921
8.749999999998099 1 0.4999999999986921
1.249999999998971 1 0.7499999999993406
2.499999999995364 1 0.7499999999993409
3.749999999991712 1 0.7499999999993407
4.999999999992399 1 0.7499999999993407
6.2499999999943 1 0.7499999999993406
7.499999999996199 1 0.7499999999993407
8.749999999998099 1 0.7499999999993406
1.249999999998971 0.7500000000003471 1
2.499999999995364 0.7500000000003473 1
3.749999999991713 0.7500000000003471 1
4.999999999992399 0.7500000000003471 1
6.2499999999943 0.7500000000003471 1
7.499999999996199 0.7500000000003471 1
8.749999999998099 0.7500000000003471 1
1.249999999998971 0.5000000000020595 1
2.499999999995364 0.5000000000020595 1
3.749999999991713 0.5000000000020595 1
4.999999999992399 0.5000000000020595 1
6.2499999999943 0.5000000000020595 1
7.499999999996199 0.5000000000020595 1
8.749999999998099 0.5000000000020595 1
1.249999999998971 0.2500000000010405 1
2.499999999995364 0.2500000000010405 1
3.749999999991713 0.2500000000010405 1
4.999999999992399 0.2500000000010405 1
6.2499999999943 0.2500000000010405 1
7.4999999999962 0.2500000000010405 1
8.749999999998099 0.2500000000010405 1
1.249999999998971 0 0.7500000000003471
2.499999999995364 0 0.7500000000003473
3.749999999991713 0 0.7500000000003471
4.999999999992399 0 0.7500000000003471
6.2499999999943 0 0.7500000000003471
7.499999999996199 0 0.7500000000003471
8.749999999998099 0 0.7500000000003471
1.249999999998971 0 0.5000000000020595
2.499999999995364 0 0.5000000000020595
3.749999999991713 0 0.5000000000020595
4.999999999992399 0 0.5000000000020595
6.2499999999943 0 0.5000000000020595
7.499999999996199 0 0.5000000000020595
8.749999999998099 0 0.5000000000020595
1.249999999998971 0 0.2500000000010405
2.499999999995364 0 0.2500000000010405
3.749999999991713 0 0.2500000000010405
4.999999999992399 0 0.2500000000010405
6.2499999999943 0 0.2500000000010405
7.4999999999962 0 0.2500000000010405
8.749999999998099 0 0.2500000000010405

CELLS 160 800
4 3 16 60 17
4 16 15 61 60
4 15 14 62 61
4 14 2 13 62
4 17 60 63 18
4 60 61 64 63
4 61 62 65 64
4 62 13 12 65
4 18 63 66 19
4 63 64 67 66
4 64 65 68 67
4 65 12 11 68
4 19 66 8 0
4 66 67 9 8
4 67 68 10 9
4 68 11 1 10
4 4 48 69 59
4 59 69 70 58
4 58 70 71 57
4 57 71 56 7
4 48 49 72 69
4 69 72 73 70
4 70 73 74 71
4 71 74 55 56
4 49 50 75 72
4 72 75 76 73
4 73 76 77 74
4 74 77 54 55
4 50 5 51 75
4 75 51 52 76
4 76 52 53 77
4 77 53 6 54
4 0 8 78 20
4 20 78 79 21
4 21 79 80 22
4 22 80 81 23
4 23 81 82 24
4 24 82 83 25
4 25 83 84 26
4 26 84 48 4
4 8 9 85 78
4 78 85 86 79
4 79 86 87 80
4 80 87 88 81
4 81 88 89 82
4 82 89 90 83
4 83 90 91 84
4 84 91 49 48
4 9 10 92 85
4 85 92 93 86
4 86 93 94 87
4 87 94 95 88
4 88 95 96 89
4 89 96 97 90
4 90 97 98 91
4 91 98 50 49
4 10 1 27 92
4 92 27 28 93
4 93 28 29 94
4 94 29 30 95
4 95 30 31 96
4 96 31 32 97
4 97 32 33 98
4 98 33 5 50
4 1 11 99 27
4 27 99 100 28
4 28 100 101 29
4 29 101 102 30
4 30 102 103 31
4 31 103 104 32
4 32 104 105 33
4 33 105 51 5
4 11 12 106 99
4 99 106 107 100
4 100 107 108 101
4 101 108 109 102
4 102 109 110 103
4 103 110 111 104
4 104 111 112 105
4 105 112 52 51
4 12 13 113 106
4 106 113 114 107
4 107 114 115 108
4 108 115 116 109
4 109 116 117 110
4 110 117 118 111
4 111 118 119 112
4 112 119 53 52
4 13 2 34 113
4 113 34 35 114
4 114 35 36 115
4 115 36 37 116
4 116 37 38 117
4 117 38 39 118
4 118 39 40 119
4 119 40 6 53
4 2 14 120 34
4 34 120 121 35
4 35 121 122 36
4 36 122 123 37
4 37 123 124 38
4 38 124 125 39
4 39 125 126 40
4 40 126 54 6
4 14 15 127 120
4 120 127 128 121
4 121 128 129 122
4 122 129 130 123
4 123 130 131 124
4 124 131 132 125
4 125 132 133 126
4 126 133 55 54
4 15 16 134 127
4 127 134 135 128
4 128 135 136 129
4 129 136 137 130
4 130 137 138 131
4 131 138 139 132
4 132 139 140 133
4 133 140 56 55
4 16 3 41 134
4 134 41 42 135
4 135 42 43 136
4 136 43 44 137
4 137 44 45 138
4 138 45 46 139
4 139 46 47 140
4 140 47 7 56
4 3 17 141 41
4 41 141 142 42
4 42 142 143 43
4 43 143 144 44
4 44 144 145 45
4 45 145 146 46
4 46 146 147 47
4 47 147 57 7
4 17 18 148 141
4 141 148 149 142
4 142 149 150 143
4 143 150 151 144
4 144 151 152 145
4 145 152 153 146
4 146 153 154 147
4 147 154 58 57
4 18 19 155 148
4 148 155 156 149
4 149 156 157 150
4 150 157 158 151
4 151 158 159 152
4 152 159 160 153
4 153 160 161 154
4 154 161 59 58
4 19 0 20 155
4 155 20 21 156
4 156 21 22 157
4 157 22 23 158
4 158 23 24 159
4 159 24 25 160
4 160 25 26 161
4 161 26 4 59

CELL_TYPES 160
9
9
9
9
9
9
9
9
9
9
9
9
9
9
9
9
9
9
9
9
9
9
9
9
9
9
9
9
9
9
9
9
9
9
9
9
9
9
9
9
9
9
9
9
9
9
9
9
9
9
9
9
9
9
9
9
9
9
9
9
9
9
9
9
9
9
9
9
9
9
9
9
9
9
9
9
9
9
9
9
9
9
9
9
9
9
9
9
9
9
9
9
9
9
9
9
9
9
9
9
9
9
9
9
9
9
9
9
9
9
9
9
9
9
9
9
9
9
9
9
9
9
9
9
9
9
9
9
9
9
9
9
9
9
9
9
9
9
9
9
9
9
9
9
9
9
9
9
9
9
9
9
9
9
9
9
9
9
9
9

CELL_DATA 160
SCALARS CellEntityIds int 1
LOOKUP_TABLE default
1
1
1
1
1
1
1
1
1
1
1
1
1
1
1
1
3
3
3
3
3
3
3
3
3
3
3
3
3
3
3
3
2
2
2
2
2
2
2
2
2
2
2
2
2
2
2
2
2
2
2
2
2
2
2
2
2
2
2
2
2
2
2
2
2
2
2
2
2
2
2
2
2
2
2
2
2
2
2
2
2
2
2
2
2
2
2
2
2
2
2
2
2
2
2
2
2
2
2
2
2
2
2
2
2
2
2
2
2
2
2
2
2
2
2
2
2
2
2
2
2
2
2
2
2
2
2
2
2
2
2
2
2
2
2
2
2
2
2
2
2
2
2
2
2
2
2
2
2
2
2
2
2
2
2
2
2
2
2
2
