# vtk DataFile Version 2.0
bar, Created by Gmsh 4.13.0 
ASCII
DATASET UNSTRUCTURED_GRID
POINTS 28 double
0 0 0
0 1 0
0 1 1
0 0 1
5 0 0
5 1 0
5 1 1
5 0 1
10 0 0
10 1 0
10 1 1
10 0 1
0 0.4999999999986921 0
0 1 0.4999999999986921
0 0.5000000000020595 1
0 0 0.5000000000020595
5 0.4999999999986921 0
5 1 0.4999999999986921
5 0.5000000000020595 1
5 0 0.5000000000020595
10 0.4999999999986921 0
10 1 0.4999999999986921
10 0.5000000000020595 1
10 0 0.5000000000020595
0 0.5000000000003758 0.5000000000003758
5 0.5000000000003758 0.5000000000003758
4.999999999999999 0.5000000000003758 0.5000000000003758
10 0.5000000000003758 0.5000000000003758

CELLS 32 160
4 3 14 24 15
4 14 2 13 24
4 15 24 12 0
4 24 13 1 12
4 4 16 25 19
4 19 25 18 7
4 16 5 17 25
4 25 17 6 18
4 0 12 16 4
4 12 1 5 16
4 1 13 17 5
4 13 2 6 17
4 2 14 18 6
4 14 3 7 18
4 3 15 19 7
4 15 0 4 19
4 7 18 26 19
4 18 6 17 26
4 19 26 16 4
4 26 17 5 16
4 8 20 27 23
4 23 27 22 11
4 20 9 21 27
4 27 21 10 22
4 4 16 20 8
4 16 5 9 20
4 5 17 21 9
4 17 6 10 21
4 6 18 22 10
4 18 7 11 22
4 7 19 23 11
4 19 4 8 23

CELL_TYPES 32
9
9
9
9
9
9
9
9
9
9
9
9
9
9
9
9
9
9
9
9
9
9
9
9
9
9
9
9
9
9
9
9

CELL_DATA 32
SCALARS CellEntityIds int 1
LOOKUP_TABLE default
1
1
1
1
5
5
5
5
2
2
2
2
2
2
2
2
6
6
6
6
4
4
4
4
3
3
3
3
3
3
3
3
